 Entering Gaussian System, Link 0=g16
 Input=example2.gjf
 Output=example2.out
 Initial command:
 C:\G16W\l1.exe ".\Gau-20008.inp" "example2.out" /scrdir=".\"
 Entering Link 1 = C:\G16W\l1.exe PID=      3472.
  
 Copyright (c) 1988-2017, Gaussian, Inc.  All Rights Reserved.
  
 This is part of the Gaussian(R) 16 program.  It is based on
 the Gaussian(R) 09 system (copyright 2009, Gaussian, Inc.),
 the Gaussian(R) 03 system (copyright 2003, Gaussian, Inc.),
 the Gaussian(R) 98 system (copyright 1998, Gaussian, Inc.),
 the Gaussian(R) 94 system (copyright 1995, Gaussian, Inc.),
 the Gaussian 92(TM) system (copyright 1992, Gaussian, Inc.),
 the Gaussian 90(TM) system (copyright 1990, Gaussian, Inc.),
 the Gaussian 88(TM) system (copyright 1988, Gaussian, Inc.),
 the Gaussian 86(TM) system (copyright 1986, Carnegie Mellon
 University), and the Gaussian 82(TM) system (copyright 1983,
 Carnegie Mellon University). Gaussian is a federally registered
 trademark of Gaussian, Inc.
  
 This software contains proprietary and confidential information,
 including trade secrets, belonging to Gaussian, Inc.
  
 This software is provided under written license and may be
 used, copied, transmitted, or stored only in accord with that
 written license.
  
 The following legend is applicable only to US Government
 contracts under FAR:
  
                    RESTRICTED RIGHTS LEGEND
  
 Use, reproduction and disclosure by the US Government is
 subject to restrictions as set forth in subparagraphs (a)
 and (c) of the Commercial Computer Software - Restricted
 Rights clause in FAR 52.227-19.
  
 Gaussian, Inc.
 340 Quinnipiac St., Bldg. 40, Wallingford CT 06492
  
  
 ---------------------------------------------------------------
 Warning -- This program may not be used in any manner that
 competes with the business of Gaussian, Inc. or will provide
 assistance to any competitor of Gaussian, Inc.  The licensee
 of this program is prohibited from giving any competitor of
 Gaussian, Inc. access to this program.  By using this program,
 the user acknowledges that Gaussian, Inc. is engaged in the
 business of creating and licensing software in the field of
 computational chemistry and represents and warrants to the
 licensee that it is not a competitor of Gaussian, Inc. and that
 it will not use this program in any manner prohibited above.
 ---------------------------------------------------------------
  

 Cite this work as:
 Gaussian 16, Revision B.01,
 M. J. Frisch, G. W. Trucks, H. B. Schlegel, G. E. Scuseria, 
 M. A. Robb, J. R. Cheeseman, G. Scalmani, V. Barone, 
 G. A. Petersson, H. Nakatsuji, X. Li, M. Caricato, A. V. Marenich, 
 J. Bloino, B. G. Janesko, R. Gomperts, B. Mennucci, H. P. Hratchian, 
 J. V. Ortiz, A. F. Izmaylov, J. L. Sonnenberg, D. Williams-Young, 
 F. Ding, F. Lipparini, F. Egidi, J. Goings, B. Peng, A. Petrone, 
 T. Henderson, D. Ranasinghe, V. G. Zakrzewski, J. Gao, N. Rega, 
 G. Zheng, W. Liang, M. Hada, M. Ehara, K. Toyota, R. Fukuda, 
 J. Hasegawa, M. Ishida, T. Nakajima, Y. Honda, O. Kitao, H. Nakai, 
 T. Vreven, K. Throssell, J. A. Montgomery, Jr., J. E. Peralta, 
 F. Ogliaro, M. J. Bearpark, J. J. Heyd, E. N. Brothers, K. N. Kudin, 
 V. N. Staroverov, T. A. Keith, R. Kobayashi, J. Normand, 
 K. Raghavachari, A. P. Rendell, J. C. Burant, S. S. Iyengar, 
 J. Tomasi, M. Cossi, J. M. Millam, M. Klene, C. Adamo, R. Cammi, 
 J. W. Ochterski, R. L. Martin, K. Morokuma, O. Farkas, 
 J. B. Foresman, and D. J. Fox, Gaussian, Inc., Wallingford CT, 2016.
 
 ******************************************
 Gaussian 16:  EM64W-G16RevB.01 16-Dec-2017
                17-Mar-2023 
 ******************************************
 %chk=example2.chk
 %CPU=0-7
 SetSPE:  set environment variable "MP_BIND" = "yes"
 SetSPE:  set environment variable "MP_BLIST" = "0,1,2,3,4,5,6,7"
 Will use up to    8 processors via shared memory.
 %Mem=8GB
 -----------------------
 # Opt Freq B3LYP/6-31G*
 -----------------------
 1/18=20,19=15,26=3,38=1/1,3;
 2/9=110,12=2,17=6,18=5,40=1/2;
 3/5=1,6=6,7=1,11=2,25=1,30=1,71=1,74=-5/1,2,3;
 4//1;
 5/5=2,38=5/2;
 6/7=2,8=2,9=2,10=2,28=1/1;
 7//1,2,3,16;
 1/18=20,19=15,26=3/3(2);
 2/9=110/2;
 99//99;
 2/9=110/2;
 3/5=1,6=6,7=1,11=2,25=1,30=1,71=1,74=-5/1,2,3;
 4/5=5,16=3,69=1/1;
 5/5=2,38=5/2;
 7//1,2,3,16;
 1/18=20,19=15,26=3/3(-5);
 2/9=110/2;
 6/7=2,8=2,9=2,10=2,19=2,28=1/1;
 99/9=1/99;
 ---------
 acetylene
 ---------
 Symbolic Z-matrix:
 Charge =  0 Multiplicity = 1
 C                     0.        0.       -0.6006 
 H                     0.        0.       -1.6706 
 C                     0.        0.        0.6006 
 H                     0.        0.        1.6706 
 

 GradGradGradGradGradGradGradGradGradGradGradGradGradGradGradGradGradGrad
 Berny optimization.
 Initialization pass.
                           ----------------------------
                           !    Initial Parameters    !
                           ! (Angstroms and Degrees)  !
 --------------------------                            --------------------------
 ! Name  Definition              Value          Derivative Info.                !
 --------------------------------------------------------------------------------
 ! R1    R(1,2)                  1.07           estimate D2E/DX2                !
 ! R2    R(1,3)                  1.2012         estimate D2E/DX2                !
 ! R3    R(3,4)                  1.07           estimate D2E/DX2                !
 ! A1    L(2,1,3,-1,-1)        180.0            estimate D2E/DX2                !
 ! A2    L(1,3,4,-1,-1)        180.0            estimate D2E/DX2                !
 ! A3    L(2,1,3,-2,-2)        180.0            estimate D2E/DX2                !
 ! A4    L(1,3,4,-2,-2)        180.0            estimate D2E/DX2                !
 --------------------------------------------------------------------------------
 Trust Radius=3.00D-01 FncErr=1.00D-07 GrdErr=1.00D-06 EigMax=2.50D+02 EigMin=1.00D-04
 Number of steps in this run=     20 maximum allowed number of steps=    100.
 GradGradGradGradGradGradGradGradGradGradGradGradGradGradGradGradGradGrad

                          Input orientation:                          
 ---------------------------------------------------------------------
 Center     Atomic      Atomic             Coordinates (Angstroms)
 Number     Number       Type             X           Y           Z
 ---------------------------------------------------------------------
      1          6           0        0.000000    0.000000   -0.600600
      2          1           0        0.000000    0.000000   -1.670600
      3          6           0        0.000000    0.000000    0.600600
      4          1           0        0.000000    0.000000    1.670600
 ---------------------------------------------------------------------
                    Distance matrix (angstroms):
                    1          2          3          4
     1  C    0.000000
     2  H    1.070000   0.000000
     3  C    1.201200   2.271200   0.000000
     4  H    2.271200   3.341200   1.070000   0.000000
 Stoichiometry    C2H2
 Framework group  D*H[C*(HC.CH)]
 Deg. of freedom     2
 Full point group                 D*H     NOp   8
 Largest Abelian subgroup         D2H     NOp   8
 Largest concise Abelian subgroup C2      NOp   2
                         Standard orientation:                         
 ---------------------------------------------------------------------
 Center     Atomic      Atomic             Coordinates (Angstroms)
 Number     Number       Type             X           Y           Z
 ---------------------------------------------------------------------
      1          6           0        0.000000    0.000000    0.600600
      2          1           0        0.000000    0.000000    1.670600
      3          6           0        0.000000    0.000000   -0.600600
      4          1           0        0.000000    0.000000   -1.670600
 ---------------------------------------------------------------------
 Rotational constants (GHZ):           0.0000000          35.3838103          35.3838103
 Standard basis: 6-31G(d) (6D, 7F)
 There are    10 symmetry adapted cartesian basis functions of AG  symmetry.
 There are     1 symmetry adapted cartesian basis functions of B1G symmetry.
 There are     3 symmetry adapted cartesian basis functions of B2G symmetry.
 There are     3 symmetry adapted cartesian basis functions of B3G symmetry.
 There are     1 symmetry adapted cartesian basis functions of AU  symmetry.
 There are    10 symmetry adapted cartesian basis functions of B1U symmetry.
 There are     3 symmetry adapted cartesian basis functions of B2U symmetry.
 There are     3 symmetry adapted cartesian basis functions of B3U symmetry.
 There are    10 symmetry adapted basis functions of AG  symmetry.
 There are     1 symmetry adapted basis functions of B1G symmetry.
 There are     3 symmetry adapted basis functions of B2G symmetry.
 There are     3 symmetry adapted basis functions of B3G symmetry.
 There are     1 symmetry adapted basis functions of AU  symmetry.
 There are    10 symmetry adapted basis functions of B1U symmetry.
 There are     3 symmetry adapted basis functions of B2U symmetry.
 There are     3 symmetry adapted basis functions of B3U symmetry.
    34 basis functions,    64 primitive gaussians,    34 cartesian basis functions
     7 alpha electrons        7 beta electrons
       nuclear repulsion energy        24.7484684929 Hartrees.
 NAtoms=    4 NActive=    4 NUniq=    2 SFac= 4.00D+00 NAtFMM=   60 NAOKFM=F Big=F
 Integral buffers will be    131072 words long.
 Raffenetti 2 integral format.
 Two-electron integral symmetry is turned on.
 One-electron integrals computed using PRISM.
 NBasis=    34 RedAO= T EigKep=  1.01D-03  NBF=    10     1     3     3     1    10     3     3
 NBsUse=    34 1.00D-06 EigRej= -1.00D+00 NBFU=    10     1     3     3     1    10     3     3
 ExpMin= 1.61D-01 ExpMax= 3.05D+03 ExpMxC= 4.57D+02 IAcc=3 IRadAn=         5 AccDes= 0.00D+00
 Harris functional with IExCor=  402 and IRadAn=       5 diagonalized for initial guess.
 HarFok:  IExCor=  402 AccDes= 0.00D+00 IRadAn=         5 IDoV= 1 UseB2=F ITyADJ=14
 ICtDFT=  3500011 ScaDFX=  1.000000  1.000000  1.000000  1.000000
 FoFCou: FMM=F IPFlag=           0 FMFlag=      100000 FMFlg1=           0
         NFxFlg=           0 DoJE=T BraDBF=F KetDBF=T FulRan=T
         wScrn=  0.000000 ICntrl=       500 IOpCl=  0 I1Cent=   200000004 NGrid=           0
         NMat0=    1 NMatS0=      1 NMatT0=    0 NMatD0=    1 NMtDS0=    0 NMtDT0=    0
 Petite list used in FoFCou.
 Initial guess orbital symmetries:
       Occupied  (SGG) (SGU) (SGG) (SGU) (SGG) (PIU) (PIU)
       Virtual   (PIG) (PIG) (SGU) (SGG) (SGU) (SGG) (PIU) (PIU)
                 (PIG) (PIG) (SGU) (SGG) (SGG) (SGU) (PIU) (PIU)
                 (DLTG) (DLTG) (SGU) (DLTU) (DLTU) (SGG) (PIG)
                 (PIG) (SGU) (SGG) (SGU)
 The electronic state of the initial guess is 1-SGG.
 Keep R1 ints in memory in symmetry-blocked form, NReq=7092292.
 Requested convergence on RMS density matrix=1.00D-08 within 128 cycles.
 Requested convergence on MAX density matrix=1.00D-06.
 Requested convergence on             energy=1.00D-06.
 No special actions if energy rises.
 Integral accuracy reduced to 1.0D-05 until final iterations.
 Initial convergence to 1.0D-05 achieved.  Increase integral accuracy.
 SCF Done:  E(RB3LYP) =  -77.3255997944     A.U. after    7 cycles
            NFock=  7  Conv=0.76D-08     -V/T= 2.0102

 **********************************************************************

            Population analysis using the SCF Density.

 **********************************************************************

 Orbital symmetries:
       Occupied  (SGG) (SGU) (SGG) (SGU) (SGG) (PIU) (PIU)
       Virtual   (PIG) (PIG) (SGU) (SGG) (SGU) (SGG) (PIU) (PIU)
                 (PIG) (PIG) (SGU) (SGG) (SGG) (SGU) (SGU) (PIU)
                 (PIU) (DLTG) (DLTG) (DLTU) (DLTU) (SGG) (PIG)
                 (PIG) (SGU) (SGG) (SGU)
 The electronic state is 1-SGG.
 Alpha  occ. eigenvalues --  -10.19153 -10.18904  -0.74315  -0.56396  -0.49084
 Alpha  occ. eigenvalues --   -0.28244  -0.28244
 Alpha virt. eigenvalues --    0.05370   0.05370   0.10496   0.14786   0.42845
 Alpha virt. eigenvalues --    0.47067   0.53234   0.53234   0.65507   0.65507
 Alpha virt. eigenvalues --    0.74660   0.82285   1.02752   1.22163   1.50440
 Alpha virt. eigenvalues --    1.50936   1.50936   1.54820   1.54820   1.94586
 Alpha virt. eigenvalues --    1.94586   2.43184   2.49183   2.49183   3.19649
 Alpha virt. eigenvalues --    4.13585   4.32649
          Condensed to atoms (all electrons):
               1          2          3          4
     1  C    4.874283   0.356973   0.989112  -0.031615
     2  H    0.356973   0.483921  -0.031615   0.001968
     3  C    0.989112  -0.031615   4.874283   0.356973
     4  H   -0.031615   0.001968   0.356973   0.483921
 Mulliken charges:
               1
     1  C   -0.188753
     2  H    0.188753
     3  C   -0.188753
     4  H    0.188753
 Sum of Mulliken charges =   0.00000
 Mulliken charges with hydrogens summed into heavy atoms:
               1
     1  C    0.000000
     3  C    0.000000
 Electronic spatial extent (au):  <R**2>=             59.7737
 Charge=              0.0000 electrons
 Dipole moment (field-independent basis, Debye):
    X=              0.0000    Y=              0.0000    Z=              0.0000  Tot=              0.0000
 Quadrupole moment (field-independent basis, Debye-Ang):
   XX=            -13.0187   YY=            -13.0187   ZZ=             -6.7584
   XY=              0.0000   XZ=              0.0000   YZ=              0.0000
 Traceless Quadrupole moment (field-independent basis, Debye-Ang):
   XX=             -2.0868   YY=             -2.0868   ZZ=              4.1735
   XY=              0.0000   XZ=              0.0000   YZ=              0.0000
 Octapole moment (field-independent basis, Debye-Ang**2):
  XXX=              0.0000  YYY=              0.0000  ZZZ=              0.0000  XYY=              0.0000
  XXY=              0.0000  XXZ=              0.0000  XZZ=              0.0000  YZZ=              0.0000
  YYZ=              0.0000  XYZ=              0.0000
 Hexadecapole moment (field-independent basis, Debye-Ang**3):
 XXXX=            -13.3364 YYYY=            -13.3364 ZZZZ=            -37.8664 XXXY=              0.0000
 XXXZ=              0.0000 YYYX=              0.0000 YYYZ=              0.0000 ZZZX=              0.0000
 ZZZY=              0.0000 XXYY=             -4.4455 XXZZ=            -11.6024 YYZZ=            -11.6024
 XXYZ=              0.0000 YYXZ=              0.0000 ZZXY=              0.0000
 N-N= 2.474846849288D+01 E-N=-2.285080216553D+02  KE= 7.654408102960D+01
 Symmetry AG   KE= 3.783744456619D+01
 Symmetry B1G  KE= 1.025132918472D-34
 Symmetry B2G  KE= 1.475993829765D-32
 Symmetry B3G  KE= 1.451673491464D-32
 Symmetry AU   KE= 2.132773971596D-34
 Symmetry B1U  KE= 3.426516538011D+01
 Symmetry B2U  KE= 2.220735541654D+00
 Symmetry B3U  KE= 2.220735541654D+00
 Calling FoFJK, ICntrl=      2127 FMM=F ISym2X=1 I1Cent= 0 IOpClX= 0 NMat=1 NMatS=1 NMatT=0.
 ***** Axes restored to original set *****
 -------------------------------------------------------------------
 Center     Atomic                   Forces (Hartrees/Bohr)
 Number     Number              X              Y              Z
 -------------------------------------------------------------------
      1        6           0.000000000    0.000000000   -0.010895864
      2        1           0.000000000    0.000000000    0.002665760
      3        6           0.000000000    0.000000000    0.010895864
      4        1           0.000000000    0.000000000   -0.002665760
 -------------------------------------------------------------------
 Cartesian Forces:  Max     0.010895864 RMS     0.004579413

 GradGradGradGradGradGradGradGradGradGradGradGradGradGradGradGradGradGrad
 Berny optimization.
 FormGI is forming the generalized inverse of G from B-inverse, IUseBI=4.
 Internal  Forces:  Max     0.008230104 RMS     0.003421511
 Search for a local minimum.
 Step number   1 out of a maximum of   20
 All quantities printed in internal units (Hartrees-Bohrs-Radians)
 Mixed Optimization -- RFO/linear search
 Second derivative matrix not updated -- first step.
 The second derivative matrix:
                          R1        R2        R3        A1        A2
           R1           0.37230
           R2           0.00000   1.04222
           R3           0.00000   0.00000   0.37230
           A1           0.00000   0.00000   0.00000   0.04718
           A2           0.00000   0.00000   0.00000   0.00000   0.00499
           A3           0.00000   0.00000   0.00000   0.00000   0.00000
           A4           0.00000   0.00000   0.00000   0.00000   0.00000
                          A3        A4
           A3           0.04718
           A4           0.00000   0.00499
 ITU=  0
     Eigenvalues ---    0.00499   0.00499   0.04718   0.04718   0.37230
     Eigenvalues ---    0.37230   1.04222
 RFO step:  Lambda=-1.03148335D-04 EMin= 4.99391781D-03
 Linear search not attempted -- first point.
 Iteration  1 RMS(Cart)=  0.00271989 RMS(Int)=  0.00000000
 Iteration  2 RMS(Cart)=  0.00000000 RMS(Int)=  0.00000000
 ClnCor:  largest displacement from symmetrization is 3.14D-13 for atom     3.
 Variable       Old X    -DE/DX   Delta X   Delta X   Delta X     New X
                                 (Linear)    (Quad)   (Total)
    R1        2.02201  -0.00267   0.00000  -0.00716  -0.00716   2.01485
    R2        2.26994   0.00823   0.00000   0.00790   0.00790   2.27783
    R3        2.02201  -0.00267   0.00000  -0.00716  -0.00716   2.01485
    A1        3.14159   0.00000   0.00000   0.00000   0.00000   3.14159
    A2        3.14159   0.00000   0.00000   0.00000   0.00000   3.14159
    A3        3.14159   0.00000   0.00000   0.00000   0.00000   3.14159
    A4        3.14159   0.00000   0.00000   0.00000   0.00000   3.14159
         Item               Value     Threshold  Converged?
 Maximum Force            0.008230     0.000450     NO 
 RMS     Force            0.003422     0.000300     NO 
 Maximum Displacement     0.003948     0.001800     NO 
 RMS     Displacement     0.002720     0.001200     NO 
 Predicted change in Energy=-5.158267D-05
 GradGradGradGradGradGradGradGradGradGradGradGradGradGradGradGradGradGrad

                          Input orientation:                          
 ---------------------------------------------------------------------
 Center     Atomic      Atomic             Coordinates (Angstroms)
 Number     Number       Type             X           Y           Z
 ---------------------------------------------------------------------
      1          6           0        0.000000    0.000000   -0.602689
      2          1           0        0.000000    0.000000   -1.668901
      3          6           0        0.000000    0.000000    0.602689
      4          1           0        0.000000    0.000000    1.668901
 ---------------------------------------------------------------------
                    Distance matrix (angstroms):
                    1          2          3          4
     1  C    0.000000
     2  H    1.066212   0.000000
     3  C    1.205378   2.271590   0.000000
     4  H    2.271590   3.337802   1.066212   0.000000
 Stoichiometry    C2H2
 Framework group  D*H[C*(HC.CH)]
 Deg. of freedom     2
 Full point group                 D*H     NOp   8
 Largest Abelian subgroup         D2H     NOp   8
 Largest concise Abelian subgroup C2      NOp   2
                         Standard orientation:                         
 ---------------------------------------------------------------------
 Center     Atomic      Atomic             Coordinates (Angstroms)
 Number     Number       Type             X           Y           Z
 ---------------------------------------------------------------------
      1          6           0        0.000000    0.000000    0.602689
      2          1           0        0.000000    0.000000    1.668901
      3          6           0        0.000000    0.000000   -0.602689
      4          1           0        0.000000    0.000000   -1.668901
 ---------------------------------------------------------------------
 Rotational constants (GHZ):           0.0000000          35.2630858          35.2630858
 Standard basis: 6-31G(d) (6D, 7F)
 There are    10 symmetry adapted cartesian basis functions of AG  symmetry.
 There are     1 symmetry adapted cartesian basis functions of B1G symmetry.
 There are     3 symmetry adapted cartesian basis functions of B2G symmetry.
 There are     3 symmetry adapted cartesian basis functions of B3G symmetry.
 There are     1 symmetry adapted cartesian basis functions of AU  symmetry.
 There are    10 symmetry adapted cartesian basis functions of B1U symmetry.
 There are     3 symmetry adapted cartesian basis functions of B2U symmetry.
 There are     3 symmetry adapted cartesian basis functions of B3U symmetry.
 There are    10 symmetry adapted basis functions of AG  symmetry.
 There are     1 symmetry adapted basis functions of B1G symmetry.
 There are     3 symmetry adapted basis functions of B2G symmetry.
 There are     3 symmetry adapted basis functions of B3G symmetry.
 There are     1 symmetry adapted basis functions of AU  symmetry.
 There are    10 symmetry adapted basis functions of B1U symmetry.
 There are     3 symmetry adapted basis functions of B2U symmetry.
 There are     3 symmetry adapted basis functions of B3U symmetry.
    34 basis functions,    64 primitive gaussians,    34 cartesian basis functions
     7 alpha electrons        7 beta electrons
       nuclear repulsion energy        24.7142584698 Hartrees.
 NAtoms=    4 NActive=    4 NUniq=    2 SFac= 4.00D+00 NAtFMM=   60 NAOKFM=F Big=F
 Integral buffers will be    131072 words long.
 Raffenetti 2 integral format.
 Two-electron integral symmetry is turned on.
 One-electron integrals computed using PRISM.
 NBasis=    34 RedAO= T EigKep=  1.03D-03  NBF=    10     1     3     3     1    10     3     3
 NBsUse=    34 1.00D-06 EigRej= -1.00D+00 NBFU=    10     1     3     3     1    10     3     3
 Initial guess from the checkpoint file:  "example2.chk"
 B after Tr=     0.000000    0.000000    0.000000
         Rot=    1.000000    0.000000    0.000000    0.000000 Ang=   0.00 deg.
 Initial guess orbital symmetries:
       Occupied  (SGG) (SGU) (SGG) (SGU) (SGG) (PIU) (PIU)
       Virtual   (PIG) (PIG) (SGU) (SGG) (SGU) (SGG) (PIU) (PIU)
                 (PIG) (PIG) (SGU) (SGG) (SGG) (SGU) (SGU) (PIU)
                 (PIU) (DLTG) (DLTG) (DLTU) (DLTU) (SGG) (PIG)
                 (PIG) (SGU) (SGG) (SGU)
 Keep R1 ints in memory in symmetry-blocked form, NReq=7092292.
 Requested convergence on RMS density matrix=1.00D-08 within 128 cycles.
 Requested convergence on MAX density matrix=1.00D-06.
 Requested convergence on             energy=1.00D-06.
 No special actions if energy rises.
 SCF Done:  E(RB3LYP) =  -77.3256453856     A.U. after    6 cycles
            NFock=  6  Conv=0.43D-08     -V/T= 2.0103
 Calling FoFJK, ICntrl=      2127 FMM=F ISym2X=1 I1Cent= 0 IOpClX= 0 NMat=1 NMatS=1 NMatT=0.
 ***** Axes restored to original set *****
 -------------------------------------------------------------------
 Center     Atomic                   Forces (Hartrees/Bohr)
 Number     Number              X              Y              Z
 -------------------------------------------------------------------
      1        6           0.000000000    0.000000000    0.001226695
      2        1           0.000000000    0.000000000   -0.000335652
      3        6           0.000000000    0.000000000   -0.001226695
      4        1           0.000000000    0.000000000    0.000335652
 -------------------------------------------------------------------
 Cartesian Forces:  Max     0.001226695 RMS     0.000519205

 GradGradGradGradGradGradGradGradGradGradGradGradGradGradGradGradGradGrad
 Berny optimization.
 Using GEDIIS/GDIIS optimizer.
 Internal  Forces:  Max     0.000891043 RMS     0.000381591
 Search for a local minimum.
 Step number   2 out of a maximum of   20
 All quantities printed in internal units (Hartrees-Bohrs-Radians)
 Mixed Optimization -- En-DIIS/RFO-DIIS
 Update second derivatives using D2CorX and points    1    2
 DE= -4.56D-05 DEPred=-5.16D-05 R= 8.84D-01
 TightC=F SS=  1.41D+00  RLast= 1.28D-02 DXNew= 5.0454D-01 3.8515D-02
 Trust test= 8.84D-01 RLast= 1.28D-02 DXMaxT set to 3.00D-01
 The second derivative matrix:
                          R1        R2        R3        A1        A2
           R1           0.38178
           R2          -0.02542   1.10908
           R3           0.00947  -0.02542   0.38178
           A1           0.00000   0.00000   0.00000   0.04718
           A2           0.00000   0.00000   0.00000   0.00000   0.00499
           A3           0.00000   0.00000   0.00000   0.00000   0.00000
           A4           0.00000   0.00000   0.00000   0.00000   0.00000
                          A3        A4
           A3           0.04718
           A4           0.00000   0.00499
 ITU=  1  0
 Use linear search instead of GDIIS.
     Eigenvalues ---    0.00499   0.00499   0.04718   0.04718   0.37230
     Eigenvalues ---    0.38945   1.11088
 RFO step:  Lambda= 0.00000000D+00 EMin= 4.99391781D-03
 Quartic linear search produced a step of -0.10328.
 Iteration  1 RMS(Cart)=  0.00030731 RMS(Int)=  0.00000000
 Iteration  2 RMS(Cart)=  0.00000000 RMS(Int)=  0.00000000
 ClnCor:  largest displacement from symmetrization is 3.20D-13 for atom     3.
 Variable       Old X    -DE/DX   Delta X   Delta X   Delta X     New X
                                 (Linear)    (Quad)   (Total)
    R1        2.01485   0.00034   0.00074   0.00007   0.00081   2.01566
    R2        2.27783  -0.00089  -0.00082   0.00005  -0.00077   2.27707
    R3        2.01485   0.00034   0.00074   0.00007   0.00081   2.01566
    A1        3.14159   0.00000   0.00000   0.00000   0.00000   3.14159
    A2        3.14159   0.00000   0.00000   0.00000   0.00000   3.14159
    A3        3.14159   0.00000   0.00000   0.00000   0.00000   3.14159
    A4        3.14159   0.00000   0.00000   0.00000   0.00000   3.14159
         Item               Value     Threshold  Converged?
 Maximum Force            0.000891     0.000450     NO 
 RMS     Force            0.000382     0.000300     NO 
 Maximum Displacement     0.000428     0.001800     YES
 RMS     Displacement     0.000307     0.001200     YES
 Predicted change in Energy=-6.126624D-07
 GradGradGradGradGradGradGradGradGradGradGradGradGradGradGradGradGradGrad

                          Input orientation:                          
 ---------------------------------------------------------------------
 Center     Atomic      Atomic             Coordinates (Angstroms)
 Number     Number       Type             X           Y           Z
 ---------------------------------------------------------------------
      1          6           0        0.000000    0.000000   -0.602486
      2          1           0        0.000000    0.000000   -1.669128
      3          6           0        0.000000    0.000000    0.602486
      4          1           0        0.000000    0.000000    1.669128
 ---------------------------------------------------------------------
                    Distance matrix (angstroms):
                    1          2          3          4
     1  C    0.000000
     2  H    1.066642   0.000000
     3  C    1.204972   2.271614   0.000000
     4  H    2.271614   3.338255   1.066642   0.000000
 Stoichiometry    C2H2
 Framework group  D*H[C*(HC.CH)]
 Deg. of freedom     2
 Full point group                 D*H     NOp   8
 Largest Abelian subgroup         D2H     NOp   8
 Largest concise Abelian subgroup C2      NOp   2
                         Standard orientation:                         
 ---------------------------------------------------------------------
 Center     Atomic      Atomic             Coordinates (Angstroms)
 Number     Number       Type             X           Y           Z
 ---------------------------------------------------------------------
      1          6           0        0.000000    0.000000    0.602486
      2          1           0        0.000000    0.000000    1.669128
      3          6           0        0.000000    0.000000   -0.602486
      4          1           0        0.000000    0.000000   -1.669128
 ---------------------------------------------------------------------
 Rotational constants (GHZ):           0.0000000          35.2737951          35.2737951
 Standard basis: 6-31G(d) (6D, 7F)
 There are    10 symmetry adapted cartesian basis functions of AG  symmetry.
 There are     1 symmetry adapted cartesian basis functions of B1G symmetry.
 There are     3 symmetry adapted cartesian basis functions of B2G symmetry.
 There are     3 symmetry adapted cartesian basis functions of B3G symmetry.
 There are     1 symmetry adapted cartesian basis functions of AU  symmetry.
 There are    10 symmetry adapted cartesian basis functions of B1U symmetry.
 There are     3 symmetry adapted cartesian basis functions of B2U symmetry.
 There are     3 symmetry adapted cartesian basis functions of B3U symmetry.
 There are    10 symmetry adapted basis functions of AG  symmetry.
 There are     1 symmetry adapted basis functions of B1G symmetry.
 There are     3 symmetry adapted basis functions of B2G symmetry.
 There are     3 symmetry adapted basis functions of B3G symmetry.
 There are     1 symmetry adapted basis functions of AU  symmetry.
 There are    10 symmetry adapted basis functions of B1U symmetry.
 There are     3 symmetry adapted basis functions of B2U symmetry.
 There are     3 symmetry adapted basis functions of B3U symmetry.
    34 basis functions,    64 primitive gaussians,    34 cartesian basis functions
     7 alpha electrons        7 beta electrons
       nuclear repulsion energy        24.7171376277 Hartrees.
 NAtoms=    4 NActive=    4 NUniq=    2 SFac= 4.00D+00 NAtFMM=   60 NAOKFM=F Big=F
 Integral buffers will be    131072 words long.
 Raffenetti 2 integral format.
 Two-electron integral symmetry is turned on.
 One-electron integrals computed using PRISM.
 NBasis=    34 RedAO= T EigKep=  1.03D-03  NBF=    10     1     3     3     1    10     3     3
 NBsUse=    34 1.00D-06 EigRej= -1.00D+00 NBFU=    10     1     3     3     1    10     3     3
 Initial guess from the checkpoint file:  "example2.chk"
 B after Tr=     0.000000    0.000000    0.000000
         Rot=    1.000000    0.000000    0.000000    0.000000 Ang=   0.00 deg.
 Initial guess orbital symmetries:
       Occupied  (SGG) (SGU) (SGG) (SGU) (SGG) (PIU) (PIU)
       Virtual   (PIG) (PIG) (SGU) (SGG) (SGU) (SGG) (PIU) (PIU)
                 (PIG) (PIG) (SGU) (SGG) (SGG) (SGU) (SGU) (PIU)
                 (PIU) (DLTG) (DLTG) (DLTU) (DLTU) (SGG) (PIG)
                 (PIG) (SGU) (SGG) (SGU)
 Keep R1 ints in memory in symmetry-blocked form, NReq=7092292.
 Requested convergence on RMS density matrix=1.00D-08 within 128 cycles.
 Requested convergence on MAX density matrix=1.00D-06.
 Requested convergence on             energy=1.00D-06.
 No special actions if energy rises.
 SCF Done:  E(RB3LYP) =  -77.3256459989     A.U. after    5 cycles
            NFock=  5  Conv=0.68D-08     -V/T= 2.0103
 Calling FoFJK, ICntrl=      2127 FMM=F ISym2X=1 I1Cent= 0 IOpClX= 0 NMat=1 NMatS=1 NMatT=0.
 ***** Axes restored to original set *****
 -------------------------------------------------------------------
 Center     Atomic                   Forces (Hartrees/Bohr)
 Number     Number              X              Y              Z
 -------------------------------------------------------------------
      1        6           0.000000000    0.000000000    0.000004988
      2        1           0.000000000    0.000000000    0.000007382
      3        6           0.000000000    0.000000000   -0.000004988
      4        1           0.000000000    0.000000000   -0.000007382
 -------------------------------------------------------------------
 Cartesian Forces:  Max     0.000007382 RMS     0.000003637

 GradGradGradGradGradGradGradGradGradGradGradGradGradGradGradGradGradGrad
 Berny optimization.
 Using GEDIIS/GDIIS optimizer.
 Internal  Forces:  Max     0.000012369 RMS     0.000006118
 Search for a local minimum.
 Step number   3 out of a maximum of   20
 All quantities printed in internal units (Hartrees-Bohrs-Radians)
 Mixed Optimization -- En-DIIS/RFO-DIIS
 Swapping is turned off.
 Update second derivatives using D2CorX and points    1    2    3
 DE= -6.13D-07 DEPred=-6.13D-07 R= 1.00D+00
 Trust test= 1.00D+00 RLast= 1.38D-03 DXMaxT set to 3.00D-01
 The second derivative matrix:
                          R1        R2        R3        A1        A2
           R1           0.38515
           R2          -0.02595   1.08969
           R3           0.01284  -0.02595   0.38515
           A1           0.00000   0.00000   0.00000   0.04718
           A2           0.00000   0.00000   0.00000   0.00000   0.00499
           A3           0.00000   0.00000   0.00000   0.00000   0.00000
           A4           0.00000   0.00000   0.00000   0.00000   0.00000
                          A3        A4
           A3           0.04718
           A4           0.00000   0.00499
 ITU=  0  1  0
     Eigenvalues ---    0.00499   0.00499   0.04718   0.04718   0.37230
     Eigenvalues ---    0.39605   1.09163
 En-DIIS/RFO-DIIS/Sim-DIIS IScMMF=       -3 using points:     3    2
 RFO step:  Lambda=-4.00752139D-10.
 DidBck=F Rises=F RFO-DIIS coefs:    0.98847    0.01153
 Iteration  1 RMS(Cart)=  0.00001401 RMS(Int)=  0.00000000
 Iteration  2 RMS(Cart)=  0.00000000 RMS(Int)=  0.00000000
 ClnCor:  largest displacement from symmetrization is 3.20D-13 for atom     3.
 Variable       Old X    -DE/DX   Delta X   Delta X   Delta X     New X
                                 (Linear)    (Quad)   (Total)
    R1        2.01566  -0.00001  -0.00001  -0.00001  -0.00002   2.01564
    R2        2.27707  -0.00001   0.00001  -0.00002  -0.00001   2.27705
    R3        2.01566  -0.00001  -0.00001  -0.00001  -0.00002   2.01564
    A1        3.14159   0.00000   0.00000   0.00000   0.00000   3.14159
    A2        3.14159   0.00000   0.00000   0.00000   0.00000   3.14159
    A3        3.14159   0.00000   0.00000   0.00000   0.00000   3.14159
    A4        3.14159   0.00000   0.00000   0.00000   0.00000   3.14159
         Item               Value     Threshold  Converged?
 Maximum Force            0.000012     0.000450     YES
 RMS     Force            0.000006     0.000300     YES
 Maximum Displacement     0.000025     0.001800     YES
 RMS     Displacement     0.000014     0.001200     YES
 Predicted change in Energy=-2.187109D-10
 Optimization completed.
    -- Stationary point found.
                           ----------------------------
                           !   Optimized Parameters   !
                           ! (Angstroms and Degrees)  !
 --------------------------                            --------------------------
 ! Name  Definition              Value          Derivative Info.                !
 --------------------------------------------------------------------------------
 ! R1    R(1,2)                  1.0666         -DE/DX =    0.0                 !
 ! R2    R(1,3)                  1.205          -DE/DX =    0.0                 !
 ! R3    R(3,4)                  1.0666         -DE/DX =    0.0                 !
 ! A1    L(2,1,3,-1,-1)        180.0            -DE/DX =    0.0                 !
 ! A2    L(1,3,4,-1,-1)        180.0            -DE/DX =    0.0                 !
 ! A3    L(2,1,3,-2,-2)        180.0            -DE/DX =    0.0                 !
 ! A4    L(1,3,4,-2,-2)        180.0            -DE/DX =    0.0                 !
 --------------------------------------------------------------------------------
 GradGradGradGradGradGradGradGradGradGradGradGradGradGradGradGradGradGrad

                          Input orientation:                          
 ---------------------------------------------------------------------
 Center     Atomic      Atomic             Coordinates (Angstroms)
 Number     Number       Type             X           Y           Z
 ---------------------------------------------------------------------
      1          6           0        0.000000    0.000000   -0.602486
      2          1           0        0.000000    0.000000   -1.669128
      3          6           0        0.000000    0.000000    0.602486
      4          1           0        0.000000    0.000000    1.669128
 ---------------------------------------------------------------------
                    Distance matrix (angstroms):
                    1          2          3          4
     1  C    0.000000
     2  H    1.066642   0.000000
     3  C    1.204972   2.271614   0.000000
     4  H    2.271614   3.338255   1.066642   0.000000
 Stoichiometry    C2H2
 Framework group  D*H[C*(HC.CH)]
 Deg. of freedom     2
 Full point group                 D*H     NOp   8
 Largest Abelian subgroup         D2H     NOp   8
 Largest concise Abelian subgroup C2      NOp   2
                         Standard orientation:                         
 ---------------------------------------------------------------------
 Center     Atomic      Atomic             Coordinates (Angstroms)
 Number     Number       Type             X           Y           Z
 ---------------------------------------------------------------------
      1          6           0        0.000000    0.000000    0.602486
      2          1           0        0.000000    0.000000    1.669128
      3          6           0        0.000000    0.000000   -0.602486
      4          1           0        0.000000    0.000000   -1.669128
 ---------------------------------------------------------------------
 Rotational constants (GHZ):           0.0000000          35.2737951          35.2737951

 **********************************************************************

            Population analysis using the SCF Density.

 **********************************************************************

 Orbital symmetries:
       Occupied  (SGG) (SGU) (SGG) (SGU) (SGG) (PIU) (PIU)
       Virtual   (PIG) (PIG) (SGU) (SGG) (SGU) (SGG) (PIU) (PIU)
                 (PIG) (PIG) (SGU) (SGG) (SGG) (SGU) (SGU) (PIU)
                 (PIU) (DLTG) (DLTG) (DLTU) (DLTU) (SGG) (PIG)
                 (PIG) (SGU) (SGG) (SGU)
 The electronic state is 1-SGG.
 Alpha  occ. eigenvalues --  -10.19217 -10.18976  -0.74262  -0.56539  -0.49158
 Alpha  occ. eigenvalues --   -0.28193  -0.28193
 Alpha virt. eigenvalues --    0.05243   0.05243   0.10558   0.14883   0.42673
 Alpha virt. eigenvalues --    0.47082   0.53292   0.53292   0.65425   0.65425
 Alpha virt. eigenvalues --    0.74675   0.82440   1.02846   1.21766   1.50514
 Alpha virt. eigenvalues --    1.50643   1.50643   1.54918   1.54918   1.94364
 Alpha virt. eigenvalues --    1.94364   2.43195   2.48719   2.48719   3.19107
 Alpha virt. eigenvalues --    4.13473   4.32924
          Condensed to atoms (all electrons):
               1          2          3          4
     1  C    4.878280   0.357837   0.984325  -0.032130
     2  H    0.357837   0.484017  -0.032130   0.001965
     3  C    0.984325  -0.032130   4.878280   0.357837
     4  H   -0.032130   0.001965   0.357837   0.484017
 Mulliken charges:
               1
     1  C   -0.188311
     2  H    0.188311
     3  C   -0.188311
     4  H    0.188311
 Sum of Mulliken charges =   0.00000
 Mulliken charges with hydrogens summed into heavy atoms:
               1
     1  C    0.000000
     3  C    0.000000
 Electronic spatial extent (au):  <R**2>=             59.8480
 Charge=              0.0000 electrons
 Dipole moment (field-independent basis, Debye):
    X=              0.0000    Y=              0.0000    Z=              0.0000  Tot=              0.0000
 Quadrupole moment (field-independent basis, Debye-Ang):
   XX=            -13.0251   YY=            -13.0251   ZZ=             -6.7619
   XY=              0.0000   XZ=              0.0000   YZ=              0.0000
 Traceless Quadrupole moment (field-independent basis, Debye-Ang):
   XX=             -2.0877   YY=             -2.0877   ZZ=              4.1755
   XY=              0.0000   XZ=              0.0000   YZ=              0.0000
 Octapole moment (field-independent basis, Debye-Ang**2):
  XXX=              0.0000  YYY=              0.0000  ZZZ=              0.0000  XYY=              0.0000
  XXY=              0.0000  XXZ=              0.0000  XZZ=              0.0000  YZZ=              0.0000
  YYZ=              0.0000  XYZ=              0.0000
 Hexadecapole moment (field-independent basis, Debye-Ang**3):
 XXXX=            -13.3542 YYYY=            -13.3542 ZZZZ=            -37.9602 XXXY=              0.0000
 XXXZ=              0.0000 YYYX=              0.0000 YYYZ=              0.0000 ZZZX=              0.0000
 ZZZY=              0.0000 XXYY=             -4.4514 XXZZ=            -11.6083 YYZZ=            -11.6083
 XXYZ=              0.0000 YYXZ=              0.0000 ZZXY=              0.0000
 N-N= 2.471713762770D+01 E-N=-2.284350431521D+02  KE= 7.653695754463D+01
 Symmetry AG   KE= 3.782940821976D+01
 Symmetry B1G  KE= 1.014506827924D-34
 Symmetry B2G  KE= 3.747023634432D-33
 Symmetry B3G  KE= 3.747023634432D-33
 Symmetry AU   KE= 2.098888320837D-34
 Symmetry B1U  KE= 3.427114238302D+01
 Symmetry B2U  KE= 2.218203470925D+00
 Symmetry B3U  KE= 2.218203470925D+00
 1|1|UNPC-DESKTOP-SQ3SQNI|FOpt|RB3LYP|6-31G(d)|C2H2|ZZ|17-Mar-2023|0||#
  Opt Freq B3LYP/6-31G*||acetylene||0,1|C,0.,0.,-0.602486042|H,0.,0.,-1
 .6691276822|C,0.,0.,0.602486042|H,0.,0.,1.6691276822||Version=EM64W-G1
 6RevB.01|State=1-SGG|HF=-77.325646|RMSD=6.824e-009|RMSF=3.637e-006|Dip
 ole=0.,0.,0.|Quadrupole=-1.5521745,-1.5521745,3.1043491,0.,0.,0.|PG=D*
 H [C*(H1C1.C1H1)]||@


 CHARLIE BROWN.."I CAN'T GET THAT STUPID KITE IN THE
 AIR... I CAN'T... I C A N N O T..."
 LUCY.."OH COME NOW CHARLIE BROWN...THAT'S NO WAY TO TALK...
 THE TROUBLE WITH YOU IS YOU DON'T BELIEVE IN YOURSELF... YOU
 DON'T BELIEVE IN YOUR OWN ABILITIES...  YOU'VE GOT TO SAY TO
 YOURSELF...'I BELIEVE I CAN FLY THIS KITE.'... GO AHEAD SAY
 IT...."
 CHARLIE BROWN.."I BELIEVE THAT I CAN FLY THIS STUPID
 KITE.....I BELIEVE THAT I CAN FLY THIS KITE........
 I  A C T U A L L Y  B E L I E V E  T H A T  I  C A N ******"
 LUCY.."I'LL BET YOU TEN-TO-ONE YOU'RE WRONG......."    SCHULZ
 Job cpu time:       0 days  0 hours  0 minutes  9.0 seconds.
 Elapsed time:       0 days  0 hours  0 minutes  7.0 seconds.
 File lengths (MBytes):  RWF=      6 Int=      0 D2E=      0 Chk=      1 Scr=      1
 Normal termination of Gaussian 16 at Fri Mar 17 08:33:10 2023.
 Link1:  Proceeding to internal job step number  2.
 --------------------------------------------------------------------
 #N Geom=AllCheck Guess=TCheck SCRF=Check GenChk RB3LYP/6-31G(d) Freq
 --------------------------------------------------------------------
 1/10=4,29=7,30=1,38=1,40=1/1,3;
 2/12=2,40=1/2;
 3/5=1,6=6,7=1,11=2,14=-4,25=1,30=1,70=2,71=2,74=-5,116=1,140=1/1,2,3;
 4/5=101/1;
 5/5=2,38=6,98=1/2;
 8/6=4,10=90,11=11/1;
 11/6=1,8=1,9=11,15=111,16=1/1,2,10;
 10/6=1/2;
 6/7=2,8=2,9=2,10=2,28=1/1;
 7/8=1,10=1,25=1/1,2,3,16;
 1/10=4,30=1/3;
 99//99;
 Structure from the checkpoint file:  "example2.chk"
 ---------
 acetylene
 ---------
 Charge =  0 Multiplicity = 1
 Redundant internal coordinates found in file.  (old form).
 C,0,0.,0.,-0.602486042
 H,0,0.,0.,-1.6691276822
 C,0,0.,0.,0.602486042
 H,0,0.,0.,1.6691276822
 Recover connectivity data from disk.

 GradGradGradGradGradGradGradGradGradGradGradGradGradGradGradGradGradGrad
 Berny optimization.
 Initialization pass.
                           ----------------------------
                           !    Initial Parameters    !
                           ! (Angstroms and Degrees)  !
 --------------------------                            --------------------------
 ! Name  Definition              Value          Derivative Info.                !
 --------------------------------------------------------------------------------
 ! R1    R(1,2)                  1.0666         calculate D2E/DX2 analytically  !
 ! R2    R(1,3)                  1.205          calculate D2E/DX2 analytically  !
 ! R3    R(3,4)                  1.0666         calculate D2E/DX2 analytically  !
 ! A1    L(2,1,3,-1,-1)        180.0            calculate D2E/DX2 analytically  !
 ! A2    L(1,3,4,-1,-1)        180.0            calculate D2E/DX2 analytically  !
 ! A3    L(2,1,3,-2,-2)        180.0            calculate D2E/DX2 analytically  !
 ! A4    L(1,3,4,-2,-2)        180.0            calculate D2E/DX2 analytically  !
 --------------------------------------------------------------------------------
 Trust Radius=3.00D-01 FncErr=1.00D-07 GrdErr=1.00D-07 EigMax=2.50D+02 EigMin=1.00D-04
 Number of steps in this run=      2 maximum allowed number of steps=      2.
 GradGradGradGradGradGradGradGradGradGradGradGradGradGradGradGradGradGrad

                          Input orientation:                          
 ---------------------------------------------------------------------
 Center     Atomic      Atomic             Coordinates (Angstroms)
 Number     Number       Type             X           Y           Z
 ---------------------------------------------------------------------
      1          6           0        0.000000    0.000000   -0.602486
      2          1           0        0.000000    0.000000   -1.669128
      3          6           0        0.000000    0.000000    0.602486
      4          1           0        0.000000    0.000000    1.669128
 ---------------------------------------------------------------------
                    Distance matrix (angstroms):
                    1          2          3          4
     1  C    0.000000
     2  H    1.066642   0.000000
     3  C    1.204972   2.271614   0.000000
     4  H    2.271614   3.338255   1.066642   0.000000
 Stoichiometry    C2H2
 Framework group  D*H[C*(HC.CH)]
 Deg. of freedom     2
 Full point group                 D*H     NOp   8
 Largest Abelian subgroup         D2H     NOp   8
 Largest concise Abelian subgroup C2      NOp   2
                         Standard orientation:                         
 ---------------------------------------------------------------------
 Center     Atomic      Atomic             Coordinates (Angstroms)
 Number     Number       Type             X           Y           Z
 ---------------------------------------------------------------------
      1          6           0        0.000000    0.000000    0.602486
      2          1           0        0.000000    0.000000    1.669128
      3          6           0        0.000000    0.000000   -0.602486
      4          1           0        0.000000    0.000000   -1.669128
 ---------------------------------------------------------------------
 Rotational constants (GHZ):           0.0000000          35.2737951          35.2737951
 Standard basis: 6-31G(d) (6D, 7F)
 There are    10 symmetry adapted cartesian basis functions of AG  symmetry.
 There are     1 symmetry adapted cartesian basis functions of B1G symmetry.
 There are     3 symmetry adapted cartesian basis functions of B2G symmetry.
 There are     3 symmetry adapted cartesian basis functions of B3G symmetry.
 There are     1 symmetry adapted cartesian basis functions of AU  symmetry.
 There are    10 symmetry adapted cartesian basis functions of B1U symmetry.
 There are     3 symmetry adapted cartesian basis functions of B2U symmetry.
 There are     3 symmetry adapted cartesian basis functions of B3U symmetry.
 There are    10 symmetry adapted basis functions of AG  symmetry.
 There are     1 symmetry adapted basis functions of B1G symmetry.
 There are     3 symmetry adapted basis functions of B2G symmetry.
 There are     3 symmetry adapted basis functions of B3G symmetry.
 There are     1 symmetry adapted basis functions of AU  symmetry.
 There are    10 symmetry adapted basis functions of B1U symmetry.
 There are     3 symmetry adapted basis functions of B2U symmetry.
 There are     3 symmetry adapted basis functions of B3U symmetry.
    34 basis functions,    64 primitive gaussians,    34 cartesian basis functions
     7 alpha electrons        7 beta electrons
       nuclear repulsion energy        24.7171376277 Hartrees.
 NAtoms=    4 NActive=    4 NUniq=    2 SFac= 4.00D+00 NAtFMM=   60 NAOKFM=F Big=F
 Integral buffers will be    131072 words long.
 Raffenetti 2 integral format.
 Two-electron integral symmetry is turned on.
 One-electron integrals computed using PRISM.
 NBasis=    34 RedAO= T EigKep=  1.03D-03  NBF=    10     1     3     3     1    10     3     3
 NBsUse=    34 1.00D-06 EigRej= -1.00D+00 NBFU=    10     1     3     3     1    10     3     3
 Initial guess from the checkpoint file:  "example2.chk"
 B after Tr=     0.000000    0.000000    0.000000
         Rot=    1.000000    0.000000    0.000000    0.000000 Ang=   0.00 deg.
 Initial guess orbital symmetries:
       Occupied  (SGG) (SGU) (SGG) (SGU) (SGG) (PIU) (PIU)
       Virtual   (PIG) (PIG) (SGU) (SGG) (SGU) (SGG) (PIU) (PIU)
                 (PIG) (PIG) (SGU) (SGG) (SGG) (SGU) (SGU) (PIU)
                 (PIU) (DLTG) (DLTG) (DLTU) (DLTU) (SGG) (PIG)
                 (PIG) (SGU) (SGG) (SGU)
 Keep R1 ints in memory in symmetry-blocked form, NReq=7092292.
 Requested convergence on RMS density matrix=1.00D-08 within 128 cycles.
 Requested convergence on MAX density matrix=1.00D-06.
 Requested convergence on             energy=1.00D-06.
 No special actions if energy rises.
 SCF Done:  E(RB3LYP) =  -77.3256459989     A.U. after    1 cycles
            NFock=  1  Conv=0.50D-09     -V/T= 2.0103
 DoSCS=F DFT=T ScalE2(SS,OS)=  1.000000  1.000000
 Range of M.O.s used for correlation:     1    34
 NBasis=    34 NAE=     7 NBE=     7 NFC=     0 NFV=     0
 NROrb=     34 NOA=     7 NOB=     7 NVA=    27 NVB=    27

 **** Warning!!: The largest alpha MO coefficient is  0.14619872D+02

 Symmetrizing basis deriv contribution to polar:
 IMax=3 JMax=2 DiffMx= 0.00D+00
 G2DrvN: will do     5 centers at a time, making    1 passes.
 Calling FoFCou, ICntrl=  3107 FMM=F I1Cent=   0 AccDes= 0.00D+00.
 End of G2Drv F.D. properties file   721 does not exist.
 End of G2Drv F.D. properties file   722 does not exist.
 End of G2Drv F.D. properties file   788 does not exist.
          IDoAtm=1111
          Differentiating once with respect to electric field.
                with respect to dipole field.
          Differentiating once with respect to nuclear coordinates.
 Keep R1 ints in memory in symmetry-blocked form, NReq=7067967.
          There are     9 degrees of freedom in the 1st order CPHF.  IDoFFX=4 NUNeed=     9.
      9 vectors produced by pass  0 Test12= 2.10D-15 1.11D-08 XBig12= 3.34D+01 3.78D+00.
 AX will form     9 AO Fock derivatives at one time.
      9 vectors produced by pass  1 Test12= 2.10D-15 1.11D-08 XBig12= 1.52D+01 2.02D+00.
      9 vectors produced by pass  2 Test12= 2.10D-15 1.11D-08 XBig12= 3.70D-01 3.33D-01.
      9 vectors produced by pass  3 Test12= 2.10D-15 1.11D-08 XBig12= 1.98D-04 4.83D-03.
      9 vectors produced by pass  4 Test12= 2.10D-15 1.11D-08 XBig12= 3.74D-07 2.79D-04.
      5 vectors produced by pass  5 Test12= 2.10D-15 1.11D-08 XBig12= 3.90D-10 7.22D-06.
      1 vectors produced by pass  6 Test12= 2.10D-15 1.11D-08 XBig12= 1.39D-13 1.24D-07.
 InvSVY:  IOpt=1 It=  1 EMax= 2.31D-16
 Solved reduced A of dimension    51 with     9 vectors.
 Isotropic polarizability for W=    0.000000       14.52 Bohr**3.
 End of Minotr F.D. properties file   721 does not exist.
 End of Minotr F.D. properties file   722 does not exist.
 End of Minotr F.D. properties file   788 does not exist.

 **********************************************************************

            Population analysis using the SCF Density.

 **********************************************************************

 Orbital symmetries:
       Occupied  (SGG) (SGU) (SGG) (SGU) (SGG) (PIU) (PIU)
       Virtual   (PIG) (PIG) (SGU) (SGG) (SGU) (SGG) (PIU) (PIU)
                 (PIG) (PIG) (SGU) (SGG) (SGG) (SGU) (SGU) (PIU)
                 (PIU) (DLTG) (DLTG) (DLTU) (DLTU) (SGG) (PIG)
                 (PIG) (SGU) (SGG) (SGU)
 The electronic state is 1-SGG.
 Alpha  occ. eigenvalues --  -10.19217 -10.18976  -0.74262  -0.56539  -0.49158
 Alpha  occ. eigenvalues --   -0.28193  -0.28193
 Alpha virt. eigenvalues --    0.05243   0.05243   0.10558   0.14883   0.42673
 Alpha virt. eigenvalues --    0.47082   0.53292   0.53292   0.65425   0.65425
 Alpha virt. eigenvalues --    0.74675   0.82440   1.02846   1.21766   1.50514
 Alpha virt. eigenvalues --    1.50643   1.50643   1.54918   1.54918   1.94364
 Alpha virt. eigenvalues --    1.94364   2.43195   2.48719   2.48719   3.19107
 Alpha virt. eigenvalues --    4.13473   4.32924
          Condensed to atoms (all electrons):
               1          2          3          4
     1  C    4.878280   0.357837   0.984325  -0.032130
     2  H    0.357837   0.484017  -0.032130   0.001965
     3  C    0.984325  -0.032130   4.878280   0.357837
     4  H   -0.032130   0.001965   0.357837   0.484017
 Mulliken charges:
               1
     1  C   -0.188311
     2  H    0.188311
     3  C   -0.188311
     4  H    0.188311
 Sum of Mulliken charges =   0.00000
 Mulliken charges with hydrogens summed into heavy atoms:
               1
     1  C    0.000000
     3  C    0.000000
 APT charges:
               1
     1  C   -0.194730
     2  H    0.194730
     3  C   -0.194730
     4  H    0.194730
 Sum of APT charges =   0.00000
 APT charges with hydrogens summed into heavy atoms:
               1
     1  C    0.000000
     3  C    0.000000
 Electronic spatial extent (au):  <R**2>=             59.8480
 Charge=              0.0000 electrons
 Dipole moment (field-independent basis, Debye):
    X=              0.0000    Y=              0.0000    Z=              0.0000  Tot=              0.0000
 Quadrupole moment (field-independent basis, Debye-Ang):
   XX=            -13.0251   YY=            -13.0251   ZZ=             -6.7619
   XY=              0.0000   XZ=              0.0000   YZ=              0.0000
 Traceless Quadrupole moment (field-independent basis, Debye-Ang):
   XX=             -2.0877   YY=             -2.0877   ZZ=              4.1755
   XY=              0.0000   XZ=              0.0000   YZ=              0.0000
 Octapole moment (field-independent basis, Debye-Ang**2):
  XXX=              0.0000  YYY=              0.0000  ZZZ=              0.0000  XYY=              0.0000
  XXY=              0.0000  XXZ=              0.0000  XZZ=              0.0000  YZZ=              0.0000
  YYZ=              0.0000  XYZ=              0.0000
 Hexadecapole moment (field-independent basis, Debye-Ang**3):
 XXXX=            -13.3542 YYYY=            -13.3542 ZZZZ=            -37.9602 XXXY=              0.0000
 XXXZ=              0.0000 YYYX=              0.0000 YYYZ=              0.0000 ZZZX=              0.0000
 ZZZY=              0.0000 XXYY=             -4.4514 XXZZ=            -11.6083 YYZZ=            -11.6083
 XXYZ=              0.0000 YYXZ=              0.0000 ZZXY=              0.0000
 N-N= 2.471713762770D+01 E-N=-2.284350431116D+02  KE= 7.653695751792D+01
 Symmetry AG   KE= 3.782940819711D+01
 Symmetry B1G  KE= 1.014506827325D-34
 Symmetry B2G  KE= 3.747023636532D-33
 Symmetry B3G  KE= 3.747023636532D-33
 Symmetry AU   KE= 2.098888351864D-34
 Symmetry B1U  KE= 3.427114237935D+01
 Symmetry B2U  KE= 2.218203470733D+00
 Symmetry B3U  KE= 2.218203470733D+00
  Exact polarizability:   7.863   0.000   7.863   0.000   0.000  27.847
 Approx polarizability:   9.711   0.000   9.711   0.000   0.000  50.810
 Calling FoFJK, ICntrl=    100127 FMM=F ISym2X=1 I1Cent= 0 IOpClX= 0 NMat=1 NMatS=1 NMatT=0.
 Full mass-weighted force constant matrix:
 Low frequencies ---    0.0009    0.0009    0.0010    4.4030    4.4030  535.0890
 Low frequencies ---  535.0890  775.3209  775.3209
 Diagonal vibrational polarizability:
        3.6286941       3.6286941       0.1738458
 Harmonic frequencies (cm**-1), IR intensities (KM/Mole), Raman scattering
 activities (A**4/AMU), depolarization ratios for plane and unpolarized
 incident light, reduced masses (AMU), force constants (mDyne/A),
 and normal coordinates:
                      1                      2                      3
                     PIG                    PIG                    PIU
 Frequencies --    535.0890               535.0890               775.3209
 Red. masses --      1.5723                 1.5723                 1.0848
 Frc consts  --      0.2652                 0.2652                 0.3842
 IR Inten    --      0.0000                 0.0000                81.0551
  Atom  AN      X      Y      Z        X      Y      Z        X      Y      Z
     1   6    -0.16   0.00   0.00     0.00  -0.16   0.00    -0.06   0.00   0.00
     2   1     0.69   0.00   0.00     0.00   0.69   0.00     0.70   0.00   0.00
     3   6     0.16   0.00   0.00     0.00   0.16   0.00    -0.06   0.00   0.00
     4   1    -0.69   0.00   0.00     0.00  -0.69   0.00     0.70   0.00   0.00
                      4                      5                      6
                     PIU                    SGG                    SGU
 Frequencies --    775.3209              2087.9722              3441.2290
 Red. masses --      1.0848                 3.8254                 1.0848
 Frc consts  --      0.3842                 9.8260                 7.5689
 IR Inten    --     81.0551                 0.0000                76.4994
  Atom  AN      X      Y      Z        X      Y      Z        X      Y      Z
     1   6     0.00  -0.06   0.00     0.00   0.00   0.36     0.00   0.00  -0.06
     2   1     0.00   0.70   0.00     0.00   0.00   0.61     0.00   0.00   0.70
     3   6     0.00  -0.06   0.00     0.00   0.00  -0.36     0.00   0.00  -0.06
     4   1     0.00   0.70   0.00     0.00   0.00  -0.61     0.00   0.00   0.70
                      7
                     SGG
 Frequencies --   3541.3995
 Red. masses --      1.2283
 Frc consts  --      9.0759
 IR Inten    --      0.0000
  Atom  AN      X      Y      Z
     1   6     0.00   0.00  -0.10
     2   1     0.00   0.00   0.70
     3   6     0.00   0.00   0.10
     4   1     0.00   0.00  -0.70

 -------------------
 - Thermochemistry -
 -------------------
 Temperature   298.150 Kelvin.  Pressure   1.00000 Atm.
 Atom     1 has atomic number  6 and mass  12.00000
 Atom     2 has atomic number  1 and mass   1.00783
 Atom     3 has atomic number  6 and mass  12.00000
 Atom     4 has atomic number  1 and mass   1.00783
 Molecular mass:    26.01565 amu.
 Principal axes and moments of inertia in atomic units:
                           1         2         3
     Eigenvalues --     0.00000  51.16379  51.16379
           X            0.00000   1.00000   0.00000
           Y            0.00000   0.00000   1.00000
           Z            1.00000   0.00000   0.00000
 This molecule is a prolate symmetric top.
 Rotational symmetry number  2.
 Rotational temperature (Kelvin)      1.69288
 Rotational constant (GHZ):          35.273795
 Zero-point vibrational energy      69930.2 (Joules/Mol)
                                   16.71372 (Kcal/Mol)
 Warning -- explicit consideration of   2 degrees of freedom as
           vibrations may cause significant error
 Vibrational temperatures:    769.87   769.87  1115.51  1115.51  3004.13
          (Kelvin)           4951.16  5095.28
 
 Zero-point correction=                           0.026635 (Hartree/Particle)
 Thermal correction to Energy=                    0.029566
 Thermal correction to Enthalpy=                  0.030511
 Thermal correction to Gibbs Free Energy=         0.007609
 Sum of electronic and zero-point Energies=            -77.299011
 Sum of electronic and thermal Energies=               -77.296080
 Sum of electronic and thermal Enthalpies=             -77.295135
 Sum of electronic and thermal Free Energies=          -77.318037
 
                     E (Thermal)             CV                S
                      KCal/Mol        Cal/Mol-Kelvin    Cal/Mol-Kelvin
 Total                   18.553              8.706             48.200
 Electronic               0.000              0.000              0.000
 Translational            0.889              2.981             35.704
 Rotational               0.592              1.987             10.886
 Vibrational             17.072              3.738              1.610
 Vibration     1          0.890              1.172              0.576
 Vibration     2          0.890              1.172              0.576
                       Q            Log10(Q)             Ln(Q)
 Total Bot       0.316227D-03         -3.500001         -8.059051
 Total V=0       0.563955D+09          8.751244         20.150485
 Vib (Bot)       0.688514D-12        -12.162087        -28.004241
 Vib (Bot)    1  0.297464D+00         -0.526566         -1.212464
 Vib (Bot)    2  0.297464D+00         -0.526566         -1.212464
 Vib (V=0)       0.122789D+01          0.089159          0.205295
 Vib (V=0)    1  0.108179D+01          0.034145          0.078621
 Vib (V=0)    2  0.108179D+01          0.034145          0.078621
 Electronic      0.100000D+01          0.000000          0.000000
 Translational   0.521562D+07          6.717306         15.467168
 Rotational      0.880602D+02          1.944780          4.478021
 ***** Axes restored to original set *****
 -------------------------------------------------------------------
 Center     Atomic                   Forces (Hartrees/Bohr)
 Number     Number              X              Y              Z
 -------------------------------------------------------------------
      1        6           0.000000000    0.000000000    0.000004984
      2        1           0.000000000    0.000000000    0.000007385
      3        6           0.000000000    0.000000000   -0.000004984
      4        1           0.000000000    0.000000000   -0.000007385
 -------------------------------------------------------------------
 Cartesian Forces:  Max     0.000007385 RMS     0.000003637
 FormGI is forming the generalized inverse of G from B-inverse, IUseBI=4.

 GradGradGradGradGradGradGradGradGradGradGradGradGradGradGradGradGradGrad
 Berny optimization.
 Internal  Forces:  Max     0.000012369 RMS     0.000006119
 Search for a local minimum.
 Step number   1 out of a maximum of    2
 All quantities printed in internal units (Hartrees-Bohrs-Radians)
 Second derivative matrix not updated -- analytic derivatives used.
 The second derivative matrix:
                          R1        R2        R3        A1        A2
           R1           0.41692
           R2          -0.00510   1.13510
           R3           0.00027  -0.00510   0.41692
           A1           0.00000   0.00000   0.00000   0.05644
           A2           0.00000   0.00000   0.00000   0.02947   0.05644
           A3           0.00000   0.00000   0.00000   0.00000   0.00000
           A4           0.00000   0.00000   0.00000   0.00000   0.00000
                          A3        A4
           A3           0.05644
           A4           0.02947   0.05644
 ITU=  0
     Eigenvalues ---    0.02697   0.02697   0.08592   0.08592   0.41666
     Eigenvalues ---    0.41712   1.13517
 Angle between quadratic step and forces=  26.15 degrees.
 Linear search not attempted -- first point.
 Iteration  1 RMS(Cart)=  0.00001283 RMS(Int)=  0.00000000
 Iteration  2 RMS(Cart)=  0.00000000 RMS(Int)=  0.00000000
 ClnCor:  largest displacement from symmetrization is 6.87D-14 for atom     1.
 Variable       Old X    -DE/DX   Delta X   Delta X   Delta X     New X
                                 (Linear)    (Quad)   (Total)
    R1        2.01566  -0.00001   0.00000  -0.00002  -0.00002   2.01564
    R2        2.27707  -0.00001   0.00000  -0.00001  -0.00001   2.27706
    R3        2.01566  -0.00001   0.00000  -0.00002  -0.00002   2.01564
    A1        3.14159   0.00000   0.00000   0.00000   0.00000   3.14159
    A2        3.14159   0.00000   0.00000   0.00000   0.00000   3.14159
    A3        3.14159   0.00000   0.00000   0.00000   0.00000   3.14159
    A4        3.14159   0.00000   0.00000   0.00000   0.00000   3.14159
         Item               Value     Threshold  Converged?
 Maximum Force            0.000012     0.000450     YES
 RMS     Force            0.000006     0.000300     YES
 Maximum Displacement     0.000023     0.001800     YES
 RMS     Displacement     0.000013     0.001200     YES
 Predicted change in Energy=-2.001000D-10
 Optimization completed.
    -- Stationary point found.
                           ----------------------------
                           !   Optimized Parameters   !
                           ! (Angstroms and Degrees)  !
 --------------------------                            --------------------------
 ! Name  Definition              Value          Derivative Info.                !
 --------------------------------------------------------------------------------
 ! R1    R(1,2)                  1.0666         -DE/DX =    0.0                 !
 ! R2    R(1,3)                  1.205          -DE/DX =    0.0                 !
 ! R3    R(3,4)                  1.0666         -DE/DX =    0.0                 !
 ! A1    L(2,1,3,-1,-1)        180.0            -DE/DX =    0.0                 !
 ! A2    L(1,3,4,-1,-1)        180.0            -DE/DX =    0.0                 !
 ! A3    L(2,1,3,-2,-2)        180.0            -DE/DX =    0.0                 !
 ! A4    L(1,3,4,-2,-2)        180.0            -DE/DX =    0.0                 !
 --------------------------------------------------------------------------------
 GradGradGradGradGradGradGradGradGradGradGradGradGradGradGradGradGradGrad

 Dipole is zero, so no output in dipole orientation.

 ----------------------------------------------------------------------

 Electric dipole moment (input orientation):
 (Debye = 10**-18 statcoulomb cm , SI units = C m)
                  (au)            (Debye)         (10**-30 SI)
   Tot        0.000000D+00      0.000000D+00      0.000000D+00
   x          0.000000D+00      0.000000D+00      0.000000D+00
   y          0.000000D+00      0.000000D+00      0.000000D+00
   z          0.000000D+00      0.000000D+00      0.000000D+00

 Dipole polarizability, Alpha (input orientation).
 (esu units = cm**3 , SI units = C**2 m**2 J**-1)
 Alpha(0;0):
               (au)            (10**-24 esu)      (10**-40 SI)
   iso        0.145244D+02      0.215229D+01      0.239475D+01
   aniso      0.199839D+02      0.296131D+01      0.329490D+01
   xx         0.786310D+01      0.116519D+01      0.129645D+01
   yx         0.000000D+00      0.000000D+00      0.000000D+00
   yy         0.786310D+01      0.116519D+01      0.129645D+01
   zx         0.000000D+00      0.000000D+00      0.000000D+00
   zy         0.000000D+00      0.000000D+00      0.000000D+00
   zz         0.278470D+02      0.412650D+01      0.459135D+01

 ----------------------------------------------------------------------
 1|1|UNPC-DESKTOP-SQ3SQNI|Freq|RB3LYP|6-31G(d)|C2H2|ZZ|17-Mar-2023|0||#
 N Geom=AllCheck Guess=TCheck SCRF=Check GenChk RB3LYP/6-31G(d) Freq||a
 cetylene||0,1|C,0.,0.,-0.602486042|H,0.,0.,-1.6691276822|C,0.,0.,0.602
 486042|H,0.,0.,1.6691276822||Version=EM64W-G16RevB.01|State=1-SGG|HF=-
 77.325646|RMSD=5.047e-010|RMSF=3.637e-006|ZeroPoint=0.026635|Thermal=0
 .0295664|Dipole=0.,0.,0.|DipoleDeriv=-0.1965986,0.,0.,0.,-0.1965986,0.
 ,0.,0.,-0.1909938,0.1965986,0.,0.,0.,0.1965986,0.,0.,0.,0.1909938,-0.1
 965986,0.,0.,0.,-0.1965986,0.,0.,0.,-0.1909938,0.1965986,0.,0.,0.,0.19
 65986,0.,0.,0.,0.1909938|Polar=7.8630995,0.,7.8630995,0.,0.,27.8469978
 |Quadrupole=-1.5521746,-1.5521746,3.1043491,0.,0.,0.|PG=D*H [C*(H1C1.C
 1H1)]|NImag=0||0.03605584,0.,0.03605584,0.,0.,1.56221620,-0.01977204,0
 .,0.,0.01389558,0.,-0.01977204,0.,0.,0.01389558,0.,0.,-0.42202226,0.,0
 .,0.41692417,-0.01490556,0.,0.,-0.00137824,0.,0.,0.03605584,0.,-0.0149
 0556,0.,0.,-0.00137824,0.,0.,0.03605584,0.,0.,-1.14555766,0.,0.,0.0053
 6372,0.,0.,1.56221620,-0.00137824,0.,0.,0.00725470,0.,0.,-0.01977204,0
 .,0.,0.01389558,0.,-0.00137824,0.,0.,0.00725470,0.,0.,-0.01977204,0.,0
 .,0.01389558,0.,0.,0.00536372,0.,0.,-0.00026562,0.,0.,-0.42202226,0.,0
 .,0.41692417||0.,0.,-0.00000498,0.,0.,-0.00000738,0.,0.,0.00000498,0.,
 0.,0.00000738|||@


 CHARLIE BROWN.."I CAN'T GET THAT STUPID KITE IN THE
 AIR... I CAN'T... I C A N N O T..."
 LUCY.."OH COME NOW CHARLIE BROWN...THAT'S NO WAY TO TALK...
 THE TROUBLE WITH YOU IS YOU DON'T BELIEVE IN YOURSELF... YOU
 DON'T BELIEVE IN YOUR OWN ABILITIES...  YOU'VE GOT TO SAY TO
 YOURSELF...'I BELIEVE I CAN FLY THIS KITE.'... GO AHEAD SAY
 IT...."
 CHARLIE BROWN.."I BELIEVE THAT I CAN FLY THIS STUPID
 KITE.....I BELIEVE THAT I CAN FLY THIS KITE........
 I  A C T U A L L Y  B E L I E V E  T H A T  I  C A N ******"
 LUCY.."I'LL BET YOU TEN-TO-ONE YOU'RE WRONG......."    SCHULZ
 Job cpu time:       0 days  0 hours  0 minutes  6.0 seconds.
 Elapsed time:       0 days  0 hours  0 minutes  4.8 seconds.
 File lengths (MBytes):  RWF=      6 Int=      0 D2E=      0 Chk=      1 Scr=      1
 Normal termination of Gaussian 16 at Fri Mar 17 08:33:16 2023.
